<tripinfos xmlns:xsi="http://www.w3.org/2001/XMLSchema-instance" xsi:noNamespaceSchemaLocation="http://sumo.dlr.de/xsd/tripinfo_file.xsd">
    <tripinfo arrivalLane="-35947535_0" arrivalPos="2.03" arrivalSpeed="3.52" depart="955.00" departDelay="0.00" departLane="-35947535_0" departPos="7.10" departSpeed="0.00" devices="tripinfo_ambulance3 routing_ambulance3" duration="547.00" id="ambulance3" rerouteNo="2" routeLength="5766.10" speedFactor="1.00" stopTime="1.00" timeLoss="144.40" vType="emergency" vaporized="traci" waitingCount="2" waitingTime="7.00" />
    <tripinfo arrivalLane="-35947535_0" arrivalPos="2.46" arrivalSpeed="3.33" depart="3499.00" departDelay="0.00" departLane="-35947535_0" departPos="7.10" departSpeed="0.00" devices="tripinfo_ambulance10 routing_ambulance10" duration="402.00" id="ambulance10" rerouteNo="2" routeLength="4696.35" speedFactor="1.00" stopTime="1.00" timeLoss="123.29" vType="emergency" vaporized="traci" waitingCount="0" waitingTime="0.00" />
    <tripinfo arrivalLane="-35947535_0" arrivalPos="1.86" arrivalSpeed="3.34" depart="3083.00" departDelay="0.00" departLane="-35947535_0" departPos="7.10" departSpeed="0.00" devices="tripinfo_ambulance8 routing_ambulance8" duration="907.00" id="ambulance8" rerouteNo="2" routeLength="11915.59" speedFactor="1.00" stopTime="1.00" timeLoss="182.73" vType="emergency" vaporized="traci" waitingCount="0" waitingTime="0.00" />
    <tripinfo arrivalLane="-35946101_0" arrivalPos="5.77" arrivalSpeed="8.25" depart="3534.00" departDelay="0.00" departLane="-35946101_0" departPos="7.10" departSpeed="0.00" devices="tripinfo_ambulance13 routing_ambulance13" duration="497.00" id="ambulance13" rerouteNo="2" routeLength="6523.50" speedFactor="1.00" stopTime="1.00" timeLoss="126.91" vType="emergency" vaporized="traci" waitingCount="1" waitingTime="9.00" />
    <tripinfo arrivalLane="-35947535_0" arrivalPos="2.27" arrivalSpeed="3.33" depart="3694.00" departDelay="0.00" departLane="-35947535_0" departPos="7.10" departSpeed="0.00" devices="tripinfo_ambulance24 routing_ambulance24" duration="590.00" id="ambulance24" rerouteNo="2" routeLength="6818.03" speedFactor="1.00" stopTime="1.00" timeLoss="167.50" vType="emergency" vaporized="traci" waitingCount="1" waitingTime="8.00" />
    <tripinfo arrivalLane="-35947535_0" arrivalPos="1.86" arrivalSpeed="3.42" depart="4839.00" departDelay="0.00" departLane="-35947535_0" departPos="7.10" departSpeed="0.00" devices="tripinfo_ambulance25 routing_ambulance25" duration="345.00" id="ambulance25" rerouteNo="2" routeLength="3817.77" speedFactor="1.00" stopTime="1.00" timeLoss="101.40" vType="emergency" vaporized="traci" waitingCount="2" waitingTime="8.00" />
</tripinfos>